                         Program Version 6.0.1  -  RELEASE   -
|  1> ! B3LYP def2-SVP SP TightSCF ALLPOP KEEPDENS
|  2>
|  3> %maxcore 5000
|  4>
|  5> %pal
|  6> nprocs 20
|  7> end
|  8>
|  9> * xyz 0 1
| 10>   O           2.54418373712076     -1.09253526039485      1.27284473046203
| 11>   O           2.87293070831913     -0.23696798124823     -0.69033943641067
| 12>   N           2.18715061781943     -0.42712545079931      0.30773627181535
| 13>   N          -2.92126765266310      1.91436239907590      0.45254789987729
| 14>   C           0.86271197317958      0.17678991931903      0.34876812947646
| 15>   C          -1.69119505505588      1.34013569458270      0.42780315161926
| 16>   C           0.04694613370305     -0.01686330902978      1.46951930519730
| 17>   C           0.41844936199523      0.94488675241827     -0.73413215933208
| 18>   C          -1.21353011276137      0.55676964358866      1.50931693016870
| 19>   C          -0.84070664025513      1.51852792202694     -0.69545001059573
| 20>   H           0.42311349959556     -0.62046527375665      2.29507710870976
| 21>   H           1.07810533231790      1.07586820358648     -1.59154417221932
| 22>   H          -1.85198627842362      0.40670087985022      2.38387382937803
| 23>   H          -1.20493699865437      2.12003240520009     -1.52955993058042
| 24>   H          -3.53908570752995      1.76091985125945      1.23622354554458
| 25>   H          -3.25516863301107      2.44184767979611     -0.35325440703627
| 26>   O          -3.45789889822024      3.37222509775831     -2.03509863283213
| 27>   H          -3.36157350030701      2.83166636476226     -2.83187578502573
| 28>   H          -2.83176849086878      4.09947502470426     -2.15997109701642
| 29> *
| 30>
| 31>                          ****END OF INPUT****

CARTESIAN COORDINATES (ANGSTROEM)
---------------------------------
  O      2.544184   -1.092535    1.272845
  O      2.872931   -0.236968   -0.690339
  N      2.187151   -0.427125    0.307736
  N     -2.921268    1.914362    0.452548
  C      0.862712    0.176790    0.348768
  C     -1.691195    1.340136    0.427803
  C      0.046946   -0.016863    1.469519
  C      0.418449    0.944887   -0.734132
  C     -1.213530    0.556770    1.509317
  C     -0.840707    1.518528   -0.695450
  H      0.423113   -0.620465    2.295077
  H      1.078105    1.075868   -1.591544
  H     -1.851986    0.406701    2.383874
  H     -1.204937    2.120032   -1.529560
  H     -3.539086    1.760920    1.236224
  H     -3.255169    2.441848   -0.353254
  O     -3.457899    3.372225   -2.035099
  H     -3.361574    2.831666   -2.831876
  H     -2.831768    4.099475   -2.159971

 Total Charge           Charge          ....    0
 Multiplicity           Mult            ....    1
 Number of Electrons    NEL             ....   82
 Basis Dimension        Dim             ....  194

ORBITAL ENERGIES
----------------

  NO   OCC          E(Eh)            E(eV)
   0   2.0000     -19.177613      -521.8494
   1   2.0000     -19.132784      -520.6295
   2   2.0000     -19.132736      -520.6282
   3   2.0000     -14.531884      -395.4327
   4   2.0000     -14.343147      -390.2969
   5   2.0000     -10.246711      -278.8272
   6   2.0000     -10.218160      -278.0503
   7   2.0000     -10.202428      -277.6222
   8   2.0000     -10.201897      -277.6077
   9   2.0000     -10.193275      -277.3731
  10   2.0000     -10.193265      -277.3728
  11   2.0000      -1.192478       -32.4490
  12   2.0000      -1.033880       -28.1333
  13   2.0000      -1.017381       -27.6843
  14   2.0000      -0.924117       -25.1465
  15   2.0000      -0.853152       -23.2155
  16   2.0000      -0.767543       -20.8859
  17   2.0000      -0.750639       -20.4259
  18   2.0000      -0.667690       -18.1688
  19   2.0000      -0.623623       -16.9696
  20   2.0000      -0.577822       -15.7233
  21   2.0000      -0.565690       -15.3932
  22   2.0000      -0.541092       -14.7239
  23   2.0000      -0.532157       -14.4807
  24   2.0000      -0.516315       -14.0497
  25   2.0000      -0.513673       -13.9778
  26   2.0000      -0.481310       -13.0971
  27   2.0000      -0.449182       -12.2229
  28   2.0000      -0.446072       -12.1382
  29   2.0000      -0.432963       -11.7815
  30   2.0000      -0.420449       -11.4410
  31   2.0000      -0.408851       -11.1254
  32   2.0000      -0.398497       -10.8437
  33   2.0000      -0.360119        -9.7993
  34   2.0000      -0.341842        -9.3020
  35   2.0000      -0.326199        -8.8763
  36   2.0000      -0.286594        -7.7986
  37   2.0000      -0.285470        -7.7680
  38   2.0000      -0.266839        -7.2611
  39   2.0000      -0.266538        -7.2529
  40   2.0000      -0.214406        -5.8343
  41   0.0000      -0.061244        -1.6665
  42   0.0000      -0.015752        -0.4286
  43   0.0000       0.006413         0.1745
  44   0.0000       0.030379         0.8267
  45   0.0000       0.060519         1.6468

MULLIKEN ATOMIC CHARGES
-----------------------
   0 O :   -0.264357
   1 O :   -0.266374
   2 N :    0.236847
   3 N :   -0.049630
   4 C :    0.156052
   5 C :    0.099187
   6 C :   -0.017789
   7 C :   -0.012256
   8 C :   -0.040533
   9 C :   -0.028321
  10 H :   -0.000602
  11 H :   -0.004846
  12 H :   -0.036843
  13 H :   -0.092260
  14 H :    0.109499
  15 H :    0.104373
  16 O :   -0.248306
  17 H :    0.178248
  18 H :    0.177908
Sum of atomic charges:    0.0000000

LOEWDIN ATOMIC CHARGES
----------------------
   0 O :   -0.229192
   1 O :   -0.231266
   2 N :    0.276865
   3 N :    0.002197
   4 C :   -0.068733
   5 C :    0.049398
   6 C :    0.008310
   7 C :    0.005224
   8 C :   -0.068916
   9 C :   -0.071986
  10 H :    0.039107
  11 H :    0.037325
  12 H :    0.024521
  13 H :    0.008079
  14 H :    0.074768
  15 H :    0.055909
  16 O :   -0.092450
  17 H :    0.090367
  18 H :    0.090472

  Mayer bond orders larger than 0.100000
B(  0-O ,  1-O ) :   0.2598 B(  0-O ,  2-N ) :   1.5269 B(  1-O ,  2-N ) :   1.5249
B(  2-N ,  4-C ) :   0.8992 B(  3-N ,  5-C ) :   1.3399 B(  3-N , 14-H ) :   0.9435
B(  3-N , 15-H ) :   0.8959 B(  4-C ,  6-C ) :   1.3373 B(  4-C ,  7-C ) :   1.3344
B(  5-C ,  8-C ) :   1.2606 B(  5-C ,  9-C ) :   1.2648 B(  6-C ,  8-C ) :   1.3998
B(  6-C , 10-H ) :   0.9805 B(  7-C ,  9-C ) :   1.3924 B(  7-C , 11-H ) :   0.9813
B(  8-C , 12-H ) :   0.9872 B(  9-C , 13-H ) :   0.9700 B( 15-H , 16-O ) :   0.1312
B( 16-O , 17-H ) :   0.9868 B( 16-O , 18-H ) :   0.9871

FINAL SINGLE POINT ENERGY      -567.824383627921

DIPOLE MOMENT
-------------

Method             : SCF
Type of density    : Electron Density
Multiplicity       :   1
Irrep              :   0
Energy             :  -567.8243836279210655 Eh
Relativity type    :
Basis              : AO
                                X                 Y                 Z
Electronic contribution:      9.892469196      -5.748808572       2.242420704
Nuclear contribution   :    -12.523371126       7.372463315      -3.029133283
                        -----------------------------------------
Total Dipole Moment    :     -2.630901930       1.623654743      -0.786712580
                        -----------------------------------------
Magnitude (a.u.)       :      3.190112282
Magnitude (Debye)      :      8.108621019

Rotational constants in cm-1:             0.083715             0.016888             0.014081
Rotational constants in MHz :          2509.704984           506.291229           422.145423

                             ****ORCA TERMINATED NORMALLY****
TOTAL RUN TIME: 0 days 0 hours 0 minutes 8 seconds 573 msec
