                         Program Version 6.0.1  -  RELEASE   -
|  1> ! B3LYP def2-SVP OPT TightSCF D3BJ
|  2>
|  3>
|  4> %maxcore 3000
|  5>
|  6> %pal
|  7> nprocs 28
|  8> end
|  9>
| 10> * xyz 0 1
| 11>   O           2.58215760639048     -1.03197358324782      1.33995818311281
| 12>   O           2.89923299107127     -0.25177811346717     -0.65598827804794
| 13>   N           2.21439583579082     -0.41381711656824      0.34752782900100
| 14>   N          -2.93106992985070      1.84786714724770      0.39167524182048
| 15>   C           0.87873547346540      0.16539190746703      0.36128153941159
| 16>   C          -1.69446823262223      1.28583410672089      0.39258292394664
| 17>   C           0.06843262509684      0.00916560040496      1.49176906207950
| 18>   C           0.41822724384552      0.87119075464716     -0.75610598691856
| 19>   C          -1.20189913291838      0.56197820219999      1.50732834008717
| 20>   C          -0.85168239399109      1.42382979548929     -0.74367359663927
| 21>   H           0.45564303996867     -0.54808280445043      2.34424848514233
| 22>   H           1.07326852070596      0.97254911932354     -1.62099300576715
| 23>   H          -1.83613081785840      0.44294433833326      2.38980884125092
| 24>   H          -1.22106744684475      1.97054528719078     -1.61353602879930
| 25>   H          -3.53176980354442      1.77255696008601      1.19989341939426
| 26>   H          -3.24858928300402      2.35897687793931     -0.42919570371979
| 27>   O          -3.46953008252131      3.44923673353289     -1.97297709743703
| 28>   H          -3.47177109964346      3.07575186084114     -2.86618596845500
| 29>   H          -2.86764171723612      4.20408348900961     -2.02493292826269
| 30> *
| 31>
| 32>
| 33>                          ****END OF INPUT****
 Total Charge           Charge          ....    0
 Multiplicity           Mult            ....    1
 Number of Electrons    NEL             ....   82
Dispersion correction           -0.031619830
FINAL SINGLE POINT ENERGY      -567.855833780970
Dispersion correction             ... done (  0.0 sec)
Dispersion correction           -0.031610046
FINAL SINGLE POINT ENERGY      -567.855869813082
Dispersion correction             ... done (  0.0 sec)
Dispersion correction           -0.031616379
FINAL SINGLE POINT ENERGY      -567.855874654829
Dispersion correction             ... done (  0.0 sec)
FINAL SINGLE POINT ENERGY      -567.855853577401
FINAL SINGLE POINT ENERGY      -567.855891219302
FINAL SINGLE POINT ENERGY      -567.855895423643
FINAL SINGLE POINT ENERGY      -567.855911443628
FINAL SINGLE POINT ENERGY      -567.855919991102
FINAL SINGLE POINT ENERGY      -567.855933652579
FINAL SINGLE POINT ENERGY      -567.855942543219
FINAL SINGLE POINT ENERGY      -567.856076595171
FINAL SINGLE POINT ENERGY      -567.856083148586
FINAL SINGLE POINT ENERGY      -567.856085960162
FINAL SINGLE POINT ENERGY      -567.856087618822
FINAL SINGLE POINT ENERGY      -567.856093534679
FINAL SINGLE POINT ENERGY      -567.856103978137
FINAL SINGLE POINT ENERGY      -567.856113199413
Dispersion correction             ... done (  0.0 sec)
Dispersion correction           -0.031754583
FINAL SINGLE POINT ENERGY      -567.856122190543
Dispersion correction             ... done (  0.0 sec)
Dispersion correction           -0.031746924
FINAL SINGLE POINT ENERGY      -567.856125653537
Dispersion correction             ... done (  0.0 sec)
                    ***********************HURRAY********************

CARTESIAN COORDINATES (ANGSTROEM)
---------------------------------
  O      2.544184   -1.092535    1.272845
  O      2.872931   -0.236968   -0.690339
  N      2.187151   -0.427125    0.307736
  N     -2.921268    1.914362    0.452548
  C      0.862712    0.176790    0.348768
  C     -1.691195    1.340136    0.427803
  C      0.046946   -0.016863    1.469519
  C      0.418449    0.944887   -0.734132
  C     -1.213530    0.556770    1.509317
  C     -0.840707    1.518528   -0.695450
  H      0.423113   -0.620465    2.295077
  H      1.078105    1.075868   -1.591544
  H     -1.851986    0.406701    2.383874
  H     -1.204937    2.120032   -1.529560
  H     -3.539086    1.760920    1.236224
  H     -3.255169    2.441848   -0.353254
  O     -3.457899    3.372225   -2.035099
  H     -3.361574    2.831666   -2.831876
  H     -2.831768    4.099475   -2.159971

 Multiplicity           Mult            ....    1
 Number of Electrons    NEL             ....   82
 Basis Dimension        Dim             ....  194

ORBITAL ENERGIES
----------------

  NO   OCC          E(Eh)            E(eV)
   0   2.0000     -19.177598      -521.8490
   1   2.0000     -19.132780      -520.6294
   2   2.0000     -19.132698      -520.6272
   3   2.0000     -14.531896      -395.4330
   4   2.0000     -14.343227      -390.2990
   5   2.0000     -10.246774      -278.8289
   6   2.0000     -10.218105      -278.0488
   7   2.0000     -10.202358      -277.6203
   8   2.0000     -10.201911      -277.6081
   9   2.0000     -10.193315      -277.3742
  10   2.0000     -10.193285      -277.3734
  11   2.0000      -1.192469       -32.4487
  12   2.0000      -1.033878       -28.1332
  13   2.0000      -1.017370       -27.6840
  14   2.0000      -0.924159       -25.1477
  15   2.0000      -0.853144       -23.2152
  16   2.0000      -0.767547       -20.8860
  17   2.0000      -0.750640       -20.4259
  18   2.0000      -0.667696       -18.1689
  19   2.0000      -0.623630       -16.9698
  20   2.0000      -0.577824       -15.7234
  21   2.0000      -0.565689       -15.3932
  22   2.0000      -0.541097       -14.7240
  23   2.0000      -0.532176       -14.4812
  24   2.0000      -0.516321       -14.0498
  25   2.0000      -0.513663       -13.9775
  26   2.0000      -0.481302       -13.0969
  27   2.0000      -0.449184       -12.2229
  28   2.0000      -0.446077       -12.1384
  29   2.0000      -0.432962       -11.7815
  30   2.0000      -0.420452       -11.4411
  31   2.0000      -0.408858       -11.1256
  32   2.0000      -0.398519       -10.8442
  33   2.0000      -0.360119        -9.7993
  34   2.0000      -0.341845        -9.3021
  35   2.0000      -0.326205        -8.8765
  36   2.0000      -0.286580        -7.7982
  37   2.0000      -0.285454        -7.7676
  38   2.0000      -0.266824        -7.2607
  39   2.0000      -0.266538        -7.2529
  40   2.0000      -0.214420        -5.8347
  41   0.0000      -0.061240        -1.6664
  42   0.0000      -0.015752        -0.4286
  43   0.0000       0.006409         0.1744
  44   0.0000       0.030374         0.8265
  45   0.0000       0.060505         1.6464

MULLIKEN ATOMIC CHARGES
-----------------------
   0 O :   -0.264361
   1 O :   -0.266376
   2 N :    0.236852
   3 N :   -0.049634
   4 C :    0.156060
   5 C :    0.099183
   6 C :   -0.017777
   7 C :   -0.012261
   8 C :   -0.040543
   9 C :   -0.028316
  10 H :   -0.000604
  11 H :   -0.004846
  12 H :   -0.036842
  13 H :   -0.092259
  14 H :    0.109500
  15 H :    0.104375
  16 O :   -0.248310
  17 H :    0.178250
  18 H :    0.177910
Sum of atomic charges:   -0.0000000

LOEWDIN ATOMIC CHARGES
----------------------
   0 O :   -0.229195
   1 O :   -0.231267
   2 N :    0.276870
   3 N :    0.002193
   4 C :   -0.068728
   5 C :    0.049395
   6 C :    0.008319
   7 C :    0.005221
   8 C :   -0.068924
   9 C :   -0.071983
  10 H :    0.039106
  11 H :    0.037325
  12 H :    0.024521
  13 H :    0.008079
  14 H :    0.074769
  15 H :    0.055910
  16 O :   -0.092453
  17 H :    0.090369
  18 H :    0.090473

  Mayer bond orders larger than 0.100000
B(  0-O ,  1-O ) :   0.2598 B(  0-O ,  2-N ) :   1.5269 B(  1-O ,  2-N ) :   1.5249
B(  2-N ,  4-C ) :   0.8992 B(  3-N ,  5-C ) :   1.3399 B(  3-N , 14-H ) :   0.9435
B(  3-N , 15-H ) :   0.8959 B(  4-C ,  6-C ) :   1.3373 B(  4-C ,  7-C ) :   1.3344
B(  5-C ,  8-C ) :   1.2606 B(  5-C ,  9-C ) :   1.2648 B(  6-C ,  8-C ) :   1.3998
B(  6-C , 10-H ) :   0.9805 B(  7-C ,  9-C ) :   1.3924 B(  7-C , 11-H ) :   0.9813
B(  8-C , 12-H ) :   0.9872 B(  9-C , 13-H ) :   0.9700 B( 15-H , 16-O ) :   0.1312
B( 16-O , 17-H ) :   0.9868 B( 16-O , 18-H ) :   0.9871

Dispersion correction           -0.031743092
FINAL SINGLE POINT ENERGY      -567.856126702832

DIPOLE MOMENT
-------------

Method             : SCF
Type of density    : Electron Density
Multiplicity       :   1
Irrep              :   0
Energy             :  -567.8243836110859775 Eh
Relativity type    :
Basis              : AO
                                X                 Y                 Z
Electronic contribution:      9.892501246      -5.748823029       2.242416158
Nuclear contribution   :    -12.523371126       7.372463315      -3.029133283
                        -----------------------------------------
Total Dipole Moment    :     -2.630869881       1.623640286      -0.786717126
                        -----------------------------------------
Magnitude (a.u.)       :      3.190079614
Magnitude (Debye)      :      8.108537982

Rotational constants in cm-1:             0.083715             0.016888             0.014081
Rotational constants in MHz :          2509.704984           506.291229           422.145423

                             ****ORCA TERMINATED NORMALLY****
TOTAL RUN TIME: 0 days 0 hours 4 minutes 41 seconds 374 msec
